LAMMPS output created by EMC v9.4.4, build Jul 24 2023 10:42:36

         550  atoms
         545  bonds
        1080  angles
        1575  dihedrals
         720  impropers

           2  atom types
           2  bond types
           3  angle types
           3  dihedral types
           3  improper types

             0    20.34306986  xlo xhi
             0    20.34306986  ylo yhi
             0    20.34306986  zlo zhi

Masses

       1   12.01115  # c
       2    1.00797  # hc

Pair Coeffs

       1    0.05400    4.01000  # c,c
       2    0.02000    2.99500  # hc,hc

Bond Coeffs

	1    1.53000  299.67000 -501.77000  679.81000  # c,c
	2    1.10100  345.00000 -691.89000  844.60000  # c,hc

Angle Coeffs

	1  112.67000   39.51600   -7.44300   -9.55830  # c,c,c
	2  110.77000   41.45300  -10.60400    5.12900  # c,c,hc
	3  107.66000   39.64100  -12.92100   -2.43180  # hc,c,hc

BondBond Coeffs

	1    0.00000    1.53000    1.53000  # c,c,c
	2    3.38720    1.53000    1.10100  # c,c,hc
	3    5.33160    1.10100    1.10100  # hc,c,hc

BondAngle Coeffs

	1    8.01600    8.01600    1.53000    1.53000  # c,c,c
	2   20.75400   11.42100    1.53000    1.10100  # c,c,hc
	3   18.10300   18.10300    1.10100    1.10100  # hc,c,hc

Dihedral Coeffs

	1    0.00000    0.00000    0.05140    0.00000   -0.14300    0.00000  # c,c,c,c
	2    0.00000    0.00000    0.03160    0.00000   -0.16810    0.00000  # c,c,c,hc
	3   -0.14320    0.00000    0.06170    0.00000   -0.10830    0.00000  # hc,c,c,hc

MiddleBondTorsion Coeffs

	1  -17.78700   -7.18770    0.00000    1.53000  # c,c,c,c
	2  -14.87900   -3.65810   -0.31380    1.53000  # c,c,c,hc
	3  -14.26100   -0.53220   -0.48640    1.53000  # hc,c,c,hc

EndBondTorsion Coeffs

	1   -0.07320    0.00000    0.00000   -0.07320    0.00000    0.00000    1.53000    1.53000  # c,c,c,c
	2    0.24860    0.24220   -0.09250    0.08140    0.05910    0.22190    1.53000    1.10100  # c,c,c,hc
	3    0.21300    0.31200    0.07770    0.21300    0.31200    0.07770    1.10100    1.10100  # hc,c,c,hc

AngleTorsion Coeffs

	1    0.38860   -0.31390    0.13890    0.38860   -0.31390    0.13890  112.67000  112.67000  # c,c,c,c
	2   -0.24540    0.00000   -0.11360    0.31130    0.45160   -0.19880  112.67000  110.77000  # c,c,c,hc
	3   -0.80850    0.55690   -0.24660   -0.80850    0.55690   -0.24660  110.77000  110.77000  # hc,c,c,hc

AngleAngleTorsion Coeffs

	1  -22.04500  112.67000  112.67000  # c,c,c,c
	2  -16.16400  112.67000  110.77000  # c,c,c,hc
	3  -12.56400  110.77000  110.77000  # hc,c,c,hc

BondBond13 Coeffs

	1    0.00000    1.53000    1.53000  # c,c,c,c
	2    0.00000    1.53000    1.10100  # c,c,c,hc
	3    0.00000    1.10100    1.10100  # hc,c,c,hc

Improper Coeffs

	1    0.00000    0.00000  # c,c,c,hc
	2    0.00000    0.00000  # c,c,hc,hc
	3    0.00000    0.00000  # c,hc,hc,hc

AngleAngle Coeffs

	1   -1.31990   -1.31990    0.11840  112.67000  110.77000  110.77000  # c,c,c,hc
	2    0.27380   -0.48250    0.27380  110.77000  110.77000  107.66000  # c,c,hc,hc
	3   -0.31570   -0.31570   -0.31570  107.66000  107.66000  107.66000  # c,hc,hc,hc

Atoms

       1       1   1 -0.1060   2.0836143818  -0.9360711725  17.3205565123  # c
       2       1   2  0.0530   3.0938223137  -1.4749375149  17.1951976908  # hc
       3       1   2  0.0530   1.3883893874  -1.6214964317  17.7905858679  # hc
       4       1   1 -0.1060   1.5596625056  -0.5227372872  15.9236370890  # c
       5       1   2  0.0530   2.3446152770  -0.0820378444  15.2569073217  # hc
       6       1   2  0.0530   1.3654995657  -1.4001477622  15.3190871810  # hc
       7       1   1 -0.1060   0.3521644427   0.3881642359  15.6092220413  # c
       8       1   2  0.0530   0.5834913624   1.4282142564  15.8161143392  # hc
       9       1   2  0.0530   0.2581347531   0.3403069448  14.5101258850  # hc
      10       1   1 -0.1060  -1.0099597018  -0.1283375438  16.1755999356  # c
      11       1   2  0.0530  -1.0290700288  -1.1935431647  15.9319912683  # hc
      12       1   2  0.0530  -1.8603052823   0.2993362513  15.6153944621  # hc
      13       1   1 -0.1060  -1.4622284777  -0.0325858414  17.7015230362  # c
      14       1   2  0.0530  -1.3088593472   1.0491319090  18.0861346781  # hc
      15       1   2  0.0530  -2.5247072380  -0.1905114024  17.6432140787  # hc
      16       1   1 -0.1060  -0.9482712001  -1.0151747575  18.8143107366  # c
      17       1   2  0.0530  -0.2222277567  -0.4777308898  19.4581944743  # hc
      18       1   2  0.0530  -0.3930395164  -1.8029793718  18.3864408558  # hc
      19       1   1 -0.1060  -2.1456488451  -1.6510542384  19.6344695447  # c
      20       1   2  0.0530  -1.7730760061  -2.4971568607  20.1188653786  # hc
      21       1   2  0.0530  -2.8994668236  -2.0884917625  19.0073238121  # hc
      22       1   1 -0.1060  -2.7656738510  -0.7107234400  20.6567812147  # c
      23       1   2  0.0530  -2.8652764900  -1.2516027415  21.6019646947  # hc
      24       1   2  0.0530  -1.9765042086   0.0662721465  20.8082716321  # hc
      25       1   1 -0.1060  -4.1591822816   0.0184990259  20.3004009298  # c
      26       1   2  0.0530  -4.9101127685  -0.4223957966  20.9890672489  # hc
      27       1   2  0.0530  -4.3419324536  -0.1975943581  19.2733138276  # hc
      28       1   1 -0.1060  -4.1250812970   1.5847125440  20.4663303014  # c
      29       1   2  0.0530  -5.1491853652   1.9644730163  20.6865203585  # hc
      30       1   2  0.0530  -3.5378503862   1.7336706234  21.3793911517  # hc
      31       1   1 -0.1060  -3.3827016896   2.3597351892  19.3724104268  # c
      32       1   2  0.0530  -3.1509007039   3.3725829444  19.6987750481  # hc
      33       1   2  0.0530  -2.4125114318   1.9441690600  19.3785591084  # hc
      34       1   1 -0.1060  -3.9199887090   2.5685511196  17.8924041593  # c
      35       1   2  0.0530  -3.0561301985   2.9641461478  17.2502774773  # hc
      36       1   2  0.0530  -4.7139452072   3.3704852758  18.0722849415  # hc
      37       1   1 -0.1060  -4.7072850277   1.6240049029  16.8596392334  # c
      38       1   2  0.0530  -3.8986246493   1.0273772747  16.3144878510  # hc
      39       1   2  0.0530  -5.0109342246   2.3673704063  16.1033372472  # hc
      40       1   1 -0.1060  -6.0055473717   0.7837269456  17.2204486694  # c
      41       1   2  0.0530  -5.6619463068  -0.2321060758  17.3264518362  # hc
      42       1   2  0.0530  -6.8380183569   0.9538833200  16.3819772295  # hc
      43       1   1 -0.1060  -6.5565417949   1.2861697654  18.5243594035  # c
      44       1   2  0.0530  -6.6087726994   2.3802882956  18.4965953085  # hc
      45       1   2  0.0530  -5.9833615984   0.8693878253  19.3037975834  # hc
      46       1   1 -0.1060  -7.8965310570   0.7282157098  18.9554545982  # c
      47       1   2  0.0530  -8.6306951591   1.2104818876  18.2474394628  # hc
      48       1   2  0.0530  -7.9514074858  -0.3030181735  18.7255888538  # hc
      49       1   1 -0.1060  -8.1276016552   1.1392313475  20.4043492295  # c
      50       1   2  0.0530  -9.0332801067   0.7374885861  20.7455829823  # hc
      51       1   2  0.0530  -7.4570960164   0.7440616569  21.1139467300  # hc
      52       1   1 -0.1060  -8.2834327745   2.6799505404  20.5044296952  # c
      53       1   2  0.0530  -7.2160306299   2.9445019333  20.4010948879  # hc
      54       1   2  0.0530  -8.9472466264   3.0247827398  19.6398732466  # hc
      55       1   1 -0.1060  -8.7659312736   3.2839301507  21.8573009777  # c
      56       1   2  0.0530  -8.8460810895   4.3548852428  21.6734106312  # hc
      57       1   2  0.0530  -7.9770397336   3.1551869903  22.6079992333  # hc
      58       1   1 -0.1060 -10.1245832730   2.8674618694  22.4778953679  # c
      59       1   2  0.0530 -10.3998347094   3.7536662342  23.0676603214  # hc
      60       1   2  0.0530 -10.9579688222   2.7888132041  21.7752196614  # hc
      61       1   1 -0.1060 -10.2453527881   1.6241074560  23.3274429905  # c
      62       1   2  0.0530 -11.3428402048   1.5268764041  23.6875123551  # hc
      63       1   2  0.0530  -9.6898495921   1.9180751723  24.1647907114  # hc
      64       1   1 -0.1060  -9.8011800918   0.2036760359  22.9056150920  # c
      65       1   2  0.0530  -8.7629142488   0.2309947302  22.5800544041  # hc
      66       1   2  0.0530  -9.8666049230  -0.3134509727  23.8714034087  # hc
      67       1   1 -0.1060 -10.5466003131  -0.6224452862  21.8734421878  # c
      68       1   2  0.0530  -9.7850587888  -1.0493545739  21.1618455384  # hc
      69       1   2  0.0530 -11.0658948616  -1.4515516713  22.3550428405  # hc
      70       1   1 -0.1060 -11.5463855509   0.1576993645  21.0623661564  # c
      71       1   2  0.0530 -11.4381204318   1.2568701160  20.9706534903  # hc
      72       1   2  0.0530 -12.4511838881   0.1670074173  21.6387624043  # hc
      73       1   1 -0.1060 -11.8508916036  -0.4142671097  19.7039128197  # c
      74       1   2  0.0530 -11.8415338184  -1.4591545426  19.6767892980  # hc
      75       1   2  0.0530 -12.8404801406   0.0115849395  19.3868884608  # hc
      76       1   1 -0.1060 -10.8098353617   0.1860122269  18.6405160868  # c
      77       1   2  0.0530 -10.1406996374  -0.6521144161  18.2911200663  # hc
      78       1   2  0.0530 -10.3110098551   0.9831667848  19.2651181274  # hc
      79       1   1 -0.1060 -11.2071755585   1.1197935412  17.4459977788  # c
      80       1   2  0.0530 -12.3072006011   1.2468155487  17.3358895371  # hc
      81       1   2  0.0530 -10.9310752281   2.1063639822  17.8321850928  # hc
      82       1   1 -0.1060 -10.3453513234   0.9147117210  16.2441651403  # c
      83       1   2  0.0530  -9.4547957718   0.4074658573  16.5029460541  # hc
      84       1   2  0.0530 -10.8362514944   0.3212162352  15.4578193934  # hc
      85       1   1 -0.1060 -10.1391344253   2.2644588698  15.6019600235  # c
      86       1   2  0.0530  -9.6256174033   2.9559427443  16.2010541506  # hc
      87       1   2  0.0530  -9.5418264287   2.1272883825  14.6670344568  # hc
      88       1   1 -0.1060 -11.5309246209   2.7920175879  15.1663391569  # c
      89       1   2  0.0530 -12.3384802632   2.2404155124  15.6455592215  # hc
      90       1   2  0.0530 -11.7644609320   2.5485047374  14.1114804208  # hc
      91       1   1 -0.1060 -11.7711191514   4.3722017370  15.1911093026  # c
      92       1   2  0.0530 -12.5783705924   4.6471063533  14.4715646024  # hc
      93       1   2  0.0530 -10.8490980636   4.8716278203  14.7879849339  # hc
      94       1   1 -0.1060 -12.1154805831   5.1410464627  16.5091220433  # c
      95       1   2  0.0530 -11.9711819963   6.1792070890  16.3279034824  # hc
      96       1   2  0.0530 -13.2230280115   5.1559549605  16.7818652584  # hc
      97       1   1 -0.1060 -11.4900262511   4.6711182038  17.8304249420  # c
      98       1   2  0.0530 -10.4195324191   4.3631660995  17.7189546681  # hc
      99       1   2  0.0530 -12.0374225368   3.7880666264  18.1102350672  # hc
     100       1   1 -0.1060 -11.7655125345   5.5215191957  19.0352171723  # c
     101       1   2  0.0530 -11.1254621735   6.3421197870  19.0704562977  # hc
     102       1   2  0.0530 -12.7095439247   6.0645477836  18.9363390224  # hc
     103       1   1 -0.1590   2.3877302169   0.2082155321  18.3245381435  # c
     104       1   2  0.0530   1.3988433810   0.7854910954  18.4594673208  # hc
     105       1   2  0.0530   3.1197949320   0.8421211499  17.8292496854  # hc
     106       1   2  0.0530   2.9534242944  -0.2925189360  19.2225263492  # hc
     107       1   1 -0.1590 -11.6378662410   4.6862872087  20.3587959765  # c
     108       1   2  0.0530 -12.2735046041   5.0358265940  21.1869967516  # hc
     109       1   2  0.0530 -10.6142502314   4.7329460138  20.7336805527  # hc
     110       1   2  0.0530 -11.9440429430   3.7342686752  20.1421597543  # hc
     111       2   1 -0.1060  19.1246282385  10.9983517510   2.8972680302  # c
     112       2   2  0.0530  19.8102082595  11.2196437844   3.7398082911  # hc
     113       2   2  0.0530  18.2045517572  11.4655489501   3.2975094716  # hc
     114       2   1 -0.1060  18.9030734415   9.4571086797   2.7824611868  # c
     115       2   2  0.0530  18.4403761698   9.1195556463   3.7139834770  # hc
     116       2   2  0.0530  18.1146905794   9.3233666987   2.0349611107  # hc
     117       2   1 -0.1060  20.0110340620   8.4307724925   2.4462993067  # c
     118       2   2  0.0530  20.6066437419   8.2036248660   3.2504295936  # hc
     119       2   2  0.0530  20.6714072762   8.6923115567   1.5770598441  # hc
     120       2   1 -0.1060  19.6444040864   6.9888869839   2.2224330024  # c
     121       2   2  0.0530  19.3495327721   6.6400774779   3.2438554257  # hc
     122       2   2  0.0530  18.7706912905   6.8478189461   1.6131148267  # hc
     123       2   1 -0.1060  20.5673696735   6.0225791489   1.4115502670  # c
     124       2   2  0.0530  20.0957230981   5.0281497076   1.6003299599  # hc
     125       2   2  0.0530  20.2731319135   6.3254439799   0.4053709539  # hc
     126       2   1 -0.1060  22.1275320281   5.9582656276   1.4520887235  # c
     127       2   2  0.0530  22.3219527286   5.5903598355   0.3934608417  # hc
     128       2   2  0.0530  22.6311973983   6.8625076623   1.6886579169  # hc
     129       2   1 -0.1060  22.5605006825   4.9400446610   2.5217038517  # c
     130       2   2  0.0530  23.1159349044   5.5365059265   3.2348496653  # hc
     131       2   2  0.0530  21.7642639335   4.3813125872   3.0246444495  # hc
     132       2   1 -0.1060  23.5558811121   3.9457710419   1.9452440323  # c
     133       2   2  0.0530  23.0394277827   3.0916651145   1.4132110363  # hc
     134       2   2  0.0530  24.1254036397   4.5015283430   1.3220607756  # hc
     135       2   1 -0.1060  24.5592974442   3.2388106574   2.8306106936  # c
     136       2   2  0.0530  24.0439674898   2.8547903457   3.7892960176  # hc
     137       2   2  0.0530  24.8267203414   2.3972380205   2.2004325224  # hc
     138       2   1 -0.1060  25.7892124915   4.0016304020   3.3110392369  # c
     139       2   2  0.0530  25.4142731562   4.8841736654   3.8198473727  # hc
     140       2   2  0.0530  26.1486451059   4.3638398955   2.2966190629  # hc
     141       2   1 -0.1060  27.1259608834   3.3922287911   3.8669993143  # c
     142       2   2  0.0530  27.7316369193   4.2606203918   4.1019612654  # hc
     143       2   2  0.0530  27.6612098886   3.0801094573   2.9603486326  # hc
     144       2   1 -0.1060  27.2209287170   2.4042085303   4.9698859865  # c
     145       2   2  0.0530  26.6620149926   1.5121998763   4.7319940666  # hc
     146       2   2  0.0530  28.2997502883   2.0037156096   5.0734880854  # hc
     147       2   1 -0.1060  26.8959896487   2.7737990147   6.4126337682  # c
     148       2   2  0.0530  25.8700451322   2.5492669416   6.6489371830  # hc
     149       2   2  0.0530  26.9786219566   3.8634232713   6.5753101949  # hc
     150       2   1 -0.1060  27.5164417863   2.1666265302   7.6832276656  # c
     151       2   2  0.0530  26.9895541704   2.6640759167   8.5818955583  # hc
     152       2   2  0.0530  27.1571615989   1.1557235920   7.6517127598  # hc
     153       2   1 -0.1060  28.9787776642   2.2676511318   8.0860813658  # c
     154       2   2  0.0530  29.0769693808   3.2028246832   8.7400810526  # hc
     155       2   2  0.0530  29.0370667199   1.5034886401   8.8968528041  # hc
     156       2   1 -0.1060  30.2013120321   2.1160879483   7.2310507194  # c
     157       2   2  0.0530  30.8731605422   1.6171034964   7.8832036607  # hc
     158       2   2  0.0530  30.0136126876   1.3318591848   6.4712415529  # hc
     159       2   1 -0.1060  30.7572079735   3.4393030822   6.6485177971  # c
     160       2   2  0.0530  29.9262801686   4.1472366786   6.8653137233  # hc
     161       2   2  0.0530  30.8517228498   3.3895864052   5.5095253445  # hc
     162       2   1 -0.1060  32.0782710676   3.9399508737   7.3146090174  # c
     163       2   2  0.0530  32.1657534159   4.9861836883   6.8885290559  # hc
     164       2   2  0.0530  31.9161642762   4.1849973130   8.4139523312  # hc
     165       2   1 -0.1060  33.3829670650   3.1695101898   7.1996170848  # c
     166       2   2  0.0530  34.1710542507   3.6487443969   7.8175503531  # hc
     167       2   2  0.0530  33.7435140102   3.3262419699   6.1673067383  # hc
     168       2   1 -0.1060  33.3860855004   1.6637712938   7.6835548395  # c
     169       2   2  0.0530  32.7014492918   1.6036404601   8.5862324562  # hc
     170       2   2  0.0530  34.4088932378   1.4994758566   7.9667730213  # hc
     171       2   1 -0.1060  32.9632239417   0.5330177264   6.6659423351  # c
     172       2   2  0.0530  31.8471594631   0.2918989684   6.7976240489  # hc
     173       2   2  0.0530  33.4847999800  -0.3809153680   6.9781215739  # hc
     174       2   1 -0.1060  33.0247537200   0.9237161436   5.1873257513  # c
     175       2   2  0.0530  32.2388060782   0.2549047227   4.7531884931  # hc
     176       2   2  0.0530  32.6068782555   1.9755404370   5.0622352604  # hc
     177       2   1 -0.1060  34.0294128151   0.8277844730   3.9883222810  # c
     178       2   2  0.0530  34.0775884386  -0.2350824247   3.5841197444  # hc
     179       2   2  0.0530  33.6585643978   1.3707277532   3.1191547593  # hc
     180       2   1 -0.1060  35.5427972492   1.0969136504   4.1084002246  # c
     181       2   2  0.0530  36.0024120121   0.6821142525   3.1400506893  # hc
     182       2   2  0.0530  35.9549178842   0.3844749719   4.8216310525  # hc
     183       2   1 -0.1060  35.9972669107   2.5287550983   4.4527082630  # c
     184       2   2  0.0530  36.6811400824   2.9594399295   3.7206080644  # hc
     185       2   2  0.0530  35.0688466524   3.1984782488   4.3365702692  # hc
     186       2   1 -0.1060  36.4994092787   2.5399197480   5.9058194278  # c
     187       2   2  0.0530  36.5750431001   3.5612565996   6.2795436264  # hc
     188       2   2  0.0530  35.6886037753   1.9951120855   6.4330600064  # hc
     189       2   1 -0.1060  37.7929340079   1.7602904347   6.1813549179  # c
     190       2   2  0.0530  37.8866517866   0.8444877260   5.5370826729  # hc
     191       2   2  0.0530  38.6274325791   2.2822098030   5.7169569849  # hc
     192       2   1 -0.1060  38.2330580246   1.3722889130   7.6572620363  # c
     193       2   2  0.0530  39.0568298509   2.1522063911   7.9633274842  # hc
     194       2   2  0.0530  38.7469680323   0.3461865956   7.6260931364  # hc
     195       2   1 -0.1060  37.2431382287   1.4287707371   8.8682598556  # c
     196       2   2  0.0530  37.8341226533   1.6420393231   9.7968802301  # hc
     197       2   2  0.0530  36.4770764760   2.2588609121   8.7145978310  # hc
     198       2   1 -0.1060  36.5107366033   0.0218808291   9.1580110446  # c
     199       2   2  0.0530  37.2838781208  -0.7346662360   9.0501426062  # hc
     200       2   2  0.0530  35.7955086170  -0.2424888929   8.3320778831  # hc
     201       2   1 -0.1060  36.0648046930  -0.2898438741  10.5953830873  # c
     202       2   2  0.0530  36.9422864044  -0.0968185938  11.2561224498  # hc
     203       2   2  0.0530  35.9345159081  -1.3741150464  10.5999442967  # hc
     204       2   1 -0.1060  34.8396068676   0.4204397222  11.1815474938  # c
     205       2   2  0.0530  34.4513575680   1.3635810778  10.6812994438  # hc
     206       2   2  0.0530  35.0165994967   0.6055641852  12.2490168413  # hc
     207       2   1 -0.1060  33.6369690551  -0.5724011176  11.1865893630  # c
     208       2   2  0.0530  32.8996915468  -0.1125014770  11.8049894036  # hc
     209       2   2  0.0530  33.9386291450  -1.4694238227  11.7509224637  # hc
     210       2   1 -0.1060  32.9136112075  -0.9497474709   9.8896727113  # c
     211       2   2  0.0530  33.5951162178  -0.9833285946   9.0838459056  # hc
     212       2   2  0.0530  32.0857013686  -0.2668832117   9.6515677805  # hc
     213       2   1 -0.1590  19.5665594491  11.8075052277   1.6306148547  # c
     214       2   2  0.0530  20.2059255452  11.1998020525   0.9575132023  # hc
     215       2   2  0.0530  20.2914704921  12.6081640076   1.9671104129  # hc
     216       2   2  0.0530  18.7060684833  12.2320021093   1.1064743026  # hc
     217       2   1 -0.1590  32.3626277971  -2.3166176728   9.9893100323  # c
     218       2   2  0.0530  31.5412158688  -2.4245295403  10.7776752212  # hc
     219       2   2  0.0530  33.1342381932  -3.0044034122  10.3208483028  # hc
     220       2   2  0.0530  31.9746764718  -2.7277093801   9.0008126105  # hc
     221       3   1 -0.1060   7.0226591792  19.3424726691  15.8035632755  # c
     222       3   2  0.0530   7.6194690646  20.2514726414  15.6978797265  # hc
     223       3   2  0.0530   7.3553955874  18.7167325182  14.9028788002  # hc
     224       3   1 -0.1060   5.5672984986  19.7589931312  15.6908793950  # c
     225       3   2  0.0530   5.2882749722  20.0783861575  16.7291062374  # hc
     226       3   2  0.0530   5.2084149904  18.7225014933  15.4917991897  # hc
     227       3   1 -0.1060   5.2509732573  20.7984688925  14.6056162383  # c
     228       3   2  0.0530   6.0245808204  21.0270155980  13.9137514661  # hc
     229       3   2  0.0530   4.4726059611  20.4174079667  13.9810730151  # hc
     230       3   1 -0.1060   4.5115440418  22.1064295906  15.1372480954  # c
     231       3   2  0.0530   4.0146752914  22.5929935602  14.2678373220  # hc
     232       3   2  0.0530   3.7088222045  21.7659532723  15.8487355702  # hc
     233       3   1 -0.1060   5.3880461759  23.2240006243  15.6474774325  # c
     234       3   2  0.0530   4.7959332121  24.1565505240  15.4173756246  # hc
     235       3   2  0.0530   6.2088965629  23.2488232486  15.0291282575  # hc
     236       3   1 -0.1060   5.7048152426  23.2419000881  17.1455136132  # c
     237       3   2  0.0530   6.8007093191  23.3451052047  17.3444509748  # hc
     238       3   2  0.0530   5.5748635774  22.2729384668  17.5942058622  # hc
     239       3   1 -0.1060   4.9774937082  24.3298804382  17.9795140350  # c
     240       3   2  0.0530   3.8759389103  24.1886455109  17.9992264072  # hc
     241       3   2  0.0530   5.0471032985  25.3264769050  17.4565226298  # hc
     242       3   1 -0.1060   5.4678944248  24.4687749640  19.4856349869  # c
     243       3   2  0.0530   4.7544788992  24.8628812527  20.2193088581  # hc
     244       3   2  0.0530   6.0482882910  25.3442301796  19.4216776648  # hc
     245       3   1 -0.1060   6.1413174219  23.2209059063  20.1003695761  # c
     246       3   2  0.0530   6.4817280076  23.4377220141  21.1609379722  # hc
     247       3   2  0.0530   7.0344079998  22.8777129958  19.4611257827  # hc
     248       3   1 -0.1060   4.9985577219  22.1114760549  20.1719273691  # c
     249       3   2  0.0530   4.6899654586  21.7741128808  19.1922963140  # hc
     250       3   2  0.0530   4.0724232541  22.5788682645  20.4655223892  # hc
     251       3   1 -0.1060   5.2214194201  20.8583736226  20.9553137101  # c
     252       3   2  0.0530   4.2158095350  20.5210001508  20.9909946736  # hc
     253       3   2  0.0530   5.7964455357  20.0982025040  20.4285145180  # hc
     254       3   1 -0.1060   5.6442455559  20.7686083798  22.4585036785  # c
     255       3   2  0.0530   4.6558714815  20.9742185075  22.9697876429  # hc
     256       3   2  0.0530   6.3818502435  21.5349523062  22.7402949765  # hc
     257       3   1 -0.1060   6.1105915816  19.4304665871  23.1209487595  # c
     258       3   2  0.0530   5.1992258196  19.0780875435  23.6104373275  # hc
     259       3   2  0.0530   6.8297613539  19.6971601526  23.9538375519  # hc
     260       3   1 -0.1060   6.6851518002  18.2163736797  22.3674246694  # c
     261       3   2  0.0530   5.7976312378  17.7211160852  21.7850994782  # hc
     262       3   2  0.0530   7.2857483369  18.4474138637  21.5309194958  # hc
     263       3   1 -0.1060   7.2686948300  17.0926169201  23.3501477567  # c
     264       3   2  0.0530   8.2291916512  17.3625845988  23.8900960075  # hc
     265       3   2  0.0530   6.4991503027  17.0983021915  24.1612625465  # hc
     266       3   1 -0.1060   7.3934431519  15.7747908618  22.6280862631  # c
     267       3   2  0.0530   7.9562481356  15.8220232005  21.7318211152  # hc
     268       3   2  0.0530   6.3233076140  15.6245980260  22.3126642447  # hc
     269       3   1 -0.1060   7.8775883118  14.5777627710  23.4077904052  # c
     270       3   2  0.0530   8.8027036462  14.8323311075  23.8944379830  # hc
     271       3   2  0.0530   7.1267519426  14.4227120098  24.2196660690  # hc
     272       3   1 -0.1060   8.1500143068  13.2851887556  22.5956997725  # c
     273       3   2  0.0530   7.2714672145  13.0360977245  21.9932635640  # hc
     274       3   2  0.0530   8.3939290306  12.4317682440  23.2538812499  # hc
     275       3   1 -0.1060   9.2579877475  13.4739301616  21.5291891701  # c
     276       3   2  0.0530   8.8675190632  14.0434300509  20.6546779783  # hc
     277       3   2  0.0530   9.9771069400  14.1419138478  22.0166324708  # hc
     278       3   1 -0.1060  10.1677542545  12.3438145457  21.1531215122  # c
     279       3   2  0.0530  11.0169405432  12.4187709132  21.8222132703  # hc
     280       3   2  0.0530  10.5561359863  12.4859183132  20.1660022191  # hc
     281       3   1 -0.1060   9.8039600671  10.9678476818  21.3184600617  # c
     282       3   2  0.0530   9.5146391586  10.7250831139  22.3265724531  # hc
     283       3   2  0.0530  10.7420765273  10.3434277513  21.0985603331  # hc
     284       3   1 -0.1060   8.9042131056  10.4874994577  20.2992665894  # c
     285       3   2  0.0530   7.9252519266  11.0443136216  20.2924929298  # hc
     286       3   2  0.0530   9.2729345017  10.7761855859  19.3123132231  # hc
     287       3   1 -0.1060   8.6919412742   8.9834120400  20.4887788752  # c
     288       3   2  0.0530   7.8476554282   9.0144933129  21.1359932760  # hc
     289       3   2  0.0530   8.1877390697   8.6339443870  19.6171651846  # hc
     290       3   1 -0.1060   9.8326840836   8.0280273157  20.8139873486  # c
     291       3   2  0.0530   9.4024725307   7.0398677290  20.9018433816  # hc
     292       3   2  0.0530  10.4977070816   8.1595401255  19.9590039668  # hc
     293       3   1 -0.1060  10.6872357597   8.0273124995  22.1087477142  # c
     294       3   2  0.0530  10.4945881109   7.0525724322  22.5843524771  # hc
     295       3   2  0.0530  10.3399334979   8.7623250455  22.8457943185  # hc
     296       3   1 -0.1060  12.1865088669   8.0845429280  21.9823429019  # c
     297       3   2  0.0530  12.4707247725   7.9761630971  23.0954475349  # hc
     298       3   2  0.0530  12.6136661202   9.0264410216  21.6060301110  # hc
     299       3   1 -0.1060  12.8550464629   6.9204480031  21.2920398159  # c
     300       3   2  0.0530  13.8976074279   6.7935230293  21.8089014124  # hc
     301       3   2  0.0530  12.3000354660   6.0698935143  21.6856181190  # hc
     302       3   1 -0.1060  13.1089488527   6.7668083117  19.7379947676  # c
     303       3   2  0.0530  13.8891320857   5.9752596578  19.5308072001  # hc
     304       3   2  0.0530  13.4221689317   7.7120979165  19.3505184594  # hc
     305       3   1 -0.1060  11.8992120522   6.2605214325  18.9701944687  # c
     306       3   2  0.0530  11.0923380396   6.2287502357  19.7702380611  # hc
     307       3   2  0.0530  12.0476464619   5.1948122961  18.7807238715  # hc
     308       3   1 -0.1060  11.3610731118   7.1239612071  17.8561225606  # c
     309       3   2  0.0530  11.6899009472   8.1673449808  18.1020983955  # hc
     310       3   2  0.0530  10.2514718785   7.2919184722  17.7596819420  # hc
     311       3   1 -0.1060  11.6969024771   6.9467408638  16.3528320103  # c
     312       3   2  0.0530  12.4428423450   7.7062169908  16.2096094117  # hc
     313       3   2  0.0530  10.9062717953   7.3594102362  15.7696355236  # hc
     314       3   1 -0.1060  11.9397974610   5.5623829338  15.7689026821  # c
     315       3   2  0.0530  11.0173205530   5.0247752983  15.9207742656  # hc
     316       3   2  0.0530  11.9801175226   5.6628852520  14.7194090608  # hc
     317       3   1 -0.1060  13.0148595372   4.6706143851  16.3984781233  # c
     318       3   2  0.0530  13.1257189636   3.8824512312  15.6792190932  # hc
     319       3   2  0.0530  12.5485905919   4.1046167551  17.2513570709  # hc
     320       3   1 -0.1060  14.2294149059   5.5363676445  16.8280897211  # c
     321       3   2  0.0530  14.4266134576   5.1585618374  17.8428868947  # hc
     322       3   2  0.0530  13.9279424251   6.5962146239  17.0265045542  # hc
     323       3   1 -0.1590   7.2223113296  18.6698255087  17.0966725112  # c
     324       3   2  0.0530   6.7606439087  19.2935094605  17.8557356704  # hc
     325       3   2  0.0530   6.6343616992  17.7637710989  17.1183788160  # hc
     326       3   2  0.0530   8.2574854677  18.3582404676  17.3254076095  # hc
     327       3   1 -0.1590  15.3427720738   5.4475857712  15.8739209767  # c
     328       3   2  0.0530  15.1135804940   4.8180655064  14.9577284134  # hc
     329       3   2  0.0530  16.1246636375   4.8480884367  16.3556070170  # hc
     330       3   2  0.0530  15.8026392185   6.4111176264  15.5949014886  # hc
     331       4   1 -0.1060  10.4111347944   1.3960549589  11.8851358232  # c
     332       4   2  0.0530  10.8918133510   0.9311365009  11.0057375282  # hc
     333       4   2  0.0530  11.1772683223   1.5072757558  12.6208050968  # hc
     334       4   1 -0.1060  10.0397565785   2.8121757792  11.3586760826  # c
     335       4   2  0.0530  10.9009984202   3.0941470579  10.7217474682  # hc
     336       4   2  0.0530   9.1360181462   2.7724242697  10.6440336680  # hc
     337       4   1 -0.1060   9.8092632830   3.8885608350  12.3999770285  # c